MODEL 1
REMARK VINA RESULT:    -5.615      0.000      0.000
REMARK INTER + INTRA:          -6.519
REMARK INTER:                  -6.272
REMARK INTRA:                  -0.247
REMARK UNBOUND:                -0.247
REMARK  Name = 
REMARK  3 active torsions:
REMARK  status: ('A' for Active; 'I' for Inactive)
REMARK    1  A    between atoms: C_1  and  C_2
REMARK    2  A    between atoms: C_2  and  C_3
REMARK    3  A    between atoms: C_6  and  N_7
REMARK                            x       y       z     vdW  Elec       q    Type
REMARK                         _______ _______ _______ _____ _____    ______ ____
ROOT
ATOM      1  C   UNL     1     -47.348  36.571  72.863  0.00  0.00    +0.000 C 
ATOM      2  C   UNL     1     -47.856  37.952  72.434  0.00  0.00    +0.000 C 
ATOM      3  C   UNL     1     -47.731  38.152  70.922  0.00  0.00    +0.000 C 
ATOM      4  C   UNL     1     -48.435  37.057  70.084  0.00  0.00    +0.000 C 
ATOM      5  C   UNL     1     -48.021  35.661  70.608  0.00  0.00    +0.000 C 
ATOM      6  C   UNL     1     -48.155  35.503  72.122  0.00  0.00    +0.000 C 
ENDROOT
BRANCH   4   7
ATOM      7  N   UNL     1     -48.108  37.119  68.637  0.00  0.00    +0.000 NA
ATOM      8  C   UNL     1     -48.533  38.335  67.910  0.00  0.00    +0.000 C 
ATOM      9  C   UNL     1     -50.029  38.375  67.573  0.00  0.00    +0.000 C 
ATOM     10  O   UNL     1     -50.413  37.231  66.802  0.00  0.00    +0.000 OA
ATOM     11  C   UNL     1     -50.099  36.023  67.504  0.00  0.00    +0.000 C 
ATOM     12  C   UNL     1     -48.605  35.949  67.869  0.00  0.00    +0.000 C 
ENDBRANCH   4   7
BRANCH   1  14
ATOM     13  C   UNL     1     -48.085  35.137  74.855  0.00  0.00    +0.000 C 
ATOM     14  C   UNL     1     -47.413  36.424  74.393  0.00  0.00    +0.000 C 
ENDBRANCH   1  14
TORSDOF 2
ENDMDL
MODEL 2
REMARK VINA RESULT:    -5.427     13.360     16.520
REMARK INTER + INTRA:          -6.309
REMARK INTER:                  -6.059
REMARK INTRA:                  -0.250
REMARK UNBOUND:                -0.247
REMARK  Name = 
REMARK  3 active torsions:
REMARK  status: ('A' for Active; 'I' for Inactive)
REMARK    1  A    between atoms: C_1  and  C_2
REMARK    2  A    between atoms: C_2  and  C_3
REMARK    3  A    between atoms: C_6  and  N_7
REMARK                            x       y       z     vdW  Elec       q    Type
REMARK                         _______ _______ _______ _____ _____    ______ ____
ROOT
ATOM      1  C   UNL     1     -44.178  38.176  82.866  0.00  0.00    +0.000 C 
ATOM      2  C   UNL     1     -42.839  38.716  82.350  0.00  0.00    +0.000 C 
ATOM      3  C   UNL     1     -42.315  39.853  83.228  0.00  0.00    +0.000 C 
ATOM      4  C   UNL     1     -42.180  39.480  84.724  0.00  0.00    +0.000 C 
ATOM      5  C   UNL     1     -43.491  38.814  85.208  0.00  0.00    +0.000 C 
ATOM      6  C   UNL     1     -43.983  37.686  84.302  0.00  0.00    +0.000 C 
ENDROOT
BRANCH   4   7
ATOM      7  N   UNL     1     -41.908  40.646  85.602  0.00  0.00    +0.000 NA
ATOM      8  C   UNL     1     -40.896  41.615  85.127  0.00  0.00    +0.000 C 
ATOM      9  C   UNL     1     -39.446  41.144  85.303  0.00  0.00    +0.000 C 
ATOM     10  O   UNL     1     -39.169  40.837  86.674  0.00  0.00    +0.000 OA
ATOM     11  C   UNL     1     -40.072  39.836  87.158  0.00  0.00    +0.000 C 
ATOM     12  C   UNL     1     -41.541  40.268  86.990  0.00  0.00    +0.000 C 
ENDBRANCH   4   7
BRANCH   1  14
ATOM     13  C   UNL     1     -43.886  36.899  80.664  0.00  0.00    +0.000 C 
ATOM     14  C   UNL     1     -44.720  37.087  81.925  0.00  0.00    +0.000 C 
ENDBRANCH   1  14
TORSDOF 2
ENDMDL
MODEL 3
REMARK VINA RESULT:    -5.246      1.558      2.482
REMARK INTER + INTRA:          -6.107
REMARK INTER:                  -5.895
REMARK INTRA:                  -0.212
REMARK UNBOUND:                -0.247
REMARK  Name = 
REMARK  3 active torsions:
REMARK  status: ('A' for Active; 'I' for Inactive)
REMARK    1  A    between atoms: C_1  and  C_2
REMARK    2  A    between atoms: C_2  and  C_3
REMARK    3  A    between atoms: C_6  and  N_7
REMARK                            x       y       z     vdW  Elec       q    Type
REMARK                         _______ _______ _______ _____ _____    ______ ____
ROOT
ATOM      1  C   UNL     1     -48.078  37.216  72.874  0.00  0.00    +0.000 C 
ATOM      2  C   UNL     1     -47.779  35.805  72.355  0.00  0.00    +0.000 C 
ATOM      3  C   UNL     1     -48.866  35.317  71.395  0.00  0.00    +0.000 C 
ATOM      4  C   UNL     1     -49.118  36.265  70.199  0.00  0.00    +0.000 C 
ATOM      5  C   UNL     1     -49.289  37.714  70.717  0.00  0.00    +0.000 C 
ATOM      6  C   UNL     1     -48.187  38.162  71.676  0.00  0.00    +0.000 C 
ENDROOT
BRANCH   4   7
ATOM      7  N   UNL     1     -50.328  35.915  69.412  0.00  0.00    +0.000 NA
ATOM      8  C   UNL     1     -50.308  34.617  68.703  0.00  0.00    +0.000 C 
ATOM      9  C   UNL     1     -49.472  34.618  67.416  0.00  0.00    +0.000 C 
ATOM     10  O   UNL     1     -49.932  35.623  66.506  0.00  0.00    +0.000 OA
ATOM     11  C   UNL     1     -49.888  36.916  67.120  0.00  0.00    +0.000 C 
ATOM     12  C   UNL     1     -50.710  36.953  68.422  0.00  0.00    +0.000 C 
ENDBRANCH   4   7
BRANCH   1  14
ATOM     13  C   UNL     1     -47.466  37.526  75.343  0.00  0.00    +0.000 C 
ATOM     14  C   UNL     1     -47.013  37.653  73.894  0.00  0.00    +0.000 C 
ENDBRANCH   1  14
TORSDOF 2
ENDMDL
MODEL 4
REMARK VINA RESULT:    -5.176      2.938      5.952
REMARK INTER + INTRA:          -6.028
REMARK INTER:                  -5.775
REMARK INTRA:                  -0.253
REMARK UNBOUND:                -0.247
REMARK  Name = 
REMARK  3 active torsions:
REMARK  status: ('A' for Active; 'I' for Inactive)
REMARK    1  A    between atoms: C_1  and  C_2
REMARK    2  A    between atoms: C_2  and  C_3
REMARK    3  A    between atoms: C_6  and  N_7
REMARK                            x       y       z     vdW  Elec       q    Type
REMARK                         _______ _______ _______ _____ _____    ______ ____
ROOT
ATOM      1  C   UNL     1     -48.321  36.507  68.907  0.00  0.00    +0.000 C 
ATOM      2  C   UNL     1     -49.397  35.641  69.573  0.00  0.00    +0.000 C 
ATOM      3  C   UNL     1     -48.898  35.039  70.889  0.00  0.00    +0.000 C 
ATOM      4  C   UNL     1     -48.377  36.088  71.901  0.00  0.00    +0.000 C 
ATOM      5  C   UNL     1     -47.390  37.044  71.189  0.00  0.00    +0.000 C 
ATOM      6  C   UNL     1     -47.922  37.620  69.878  0.00  0.00    +0.000 C 
ENDROOT
BRANCH   4   7
ATOM      7  N   UNL     1     -47.676  35.488  73.065  0.00  0.00    +0.000 NA
ATOM      8  C   UNL     1     -48.411  34.453  73.823  0.00  0.00    +0.000 C 
ATOM      9  C   UNL     1     -49.490  35.010  74.761  0.00  0.00    +0.000 C 
ATOM     10  O   UNL     1     -48.930  35.940  75.694  0.00  0.00    +0.000 OA
ATOM     11  C   UNL     1     -48.278  37.013  75.004  0.00  0.00    +0.000 C 
ATOM     12  C   UNL     1     -47.192  36.493  74.044  0.00  0.00    +0.000 C 
ENDBRANCH   4   7
BRANCH   1  14
ATOM     13  C   UNL     1     -48.799  38.557  67.445  0.00  0.00    +0.000 C 
ATOM     14  C   UNL     1     -48.819  37.037  67.551  0.00  0.00    +0.000 C 
ENDBRANCH   1  14
TORSDOF 2
ENDMDL
MODEL 5
REMARK VINA RESULT:    -5.075      3.360      3.676
REMARK INTER + INTRA:          -5.916
REMARK INTER:                  -5.660
REMARK INTRA:                  -0.256
REMARK UNBOUND:                -0.247
REMARK  Name = 
REMARK  3 active torsions:
REMARK  status: ('A' for Active; 'I' for Inactive)
REMARK    1  A    between atoms: C_1  and  C_2
REMARK    2  A    between atoms: C_2  and  C_3
REMARK    3  A    between atoms: C_6  and  N_7
REMARK                            x       y       z     vdW  Elec       q    Type
REMARK                         _______ _______ _______ _____ _____    ______ ____
ROOT
ATOM      1  C   UNL     1     -52.123  37.866  72.630  0.00  0.00    +0.000 C 
ATOM      2  C   UNL     1     -52.017  38.664  71.325  0.00  0.00    +0.000 C 
ATOM      3  C   UNL     1     -50.659  38.459  70.650  0.00  0.00    +0.000 C 
ATOM      4  C   UNL     1     -50.309  36.976  70.381  0.00  0.00    +0.000 C 
ATOM      5  C   UNL     1     -50.545  36.149  71.669  0.00  0.00    +0.000 C 
ATOM      6  C   UNL     1     -51.910  36.385  72.314  0.00  0.00    +0.000 C 
ENDROOT
BRANCH   4   7
ATOM      7  N   UNL     1     -48.901  36.768  69.955  0.00  0.00    +0.000 NA
ATOM      8  C   UNL     1     -48.376  37.688  68.924  0.00  0.00    +0.000 C 
ATOM      9  C   UNL     1     -48.853  37.373  67.500  0.00  0.00    +0.000 C 
ATOM     10  O   UNL     1     -48.508  36.034  67.128  0.00  0.00    +0.000 OA
ATOM     11  C   UNL     1     -49.069  35.095  68.053  0.00  0.00    +0.000 C 
ATOM     12  C   UNL     1     -48.621  35.384  69.498  0.00  0.00    +0.000 C 
ENDBRANCH   4   7
BRANCH   1  14
ATOM     13  C   UNL     1     -54.649  37.436  72.683  0.00  0.00    +0.000 C 
ATOM     14  C   UNL     1     -53.466  38.148  73.326  0.00  0.00    +0.000 C 
ENDBRANCH   1  14
TORSDOF 2
ENDMDL
MODEL 6
REMARK VINA RESULT:    -4.776      8.986     10.051
REMARK INTER + INTRA:          -5.582
REMARK INTER:                  -5.322
REMARK INTRA:                  -0.260
REMARK UNBOUND:                -0.247
REMARK  Name = 
REMARK  3 active torsions:
REMARK  status: ('A' for Active; 'I' for Inactive)
REMARK    1  A    between atoms: C_1  and  C_2
REMARK    2  A    between atoms: C_2  and  C_3
REMARK    3  A    between atoms: C_6  and  N_7
REMARK                            x       y       z     vdW  Elec       q    Type
REMARK                         _______ _______ _______ _____ _____    ______ ____
ROOT
ATOM      1  C   UNL     1     -55.160  39.218  79.797  0.00  0.00    +0.000 C 
ATOM      2  C   UNL     1     -54.257  39.720  78.665  0.00  0.00    +0.000 C 
ATOM      3  C   UNL     1     -54.084  38.662  77.573  0.00  0.00    +0.000 C 
ATOM      4  C   UNL     1     -55.418  38.146  76.982  0.00  0.00    +0.000 C 
ATOM      5  C   UNL     1     -56.378  37.764  78.135  0.00  0.00    +0.000 C 
ATOM      6  C   UNL     1     -56.520  38.844  79.206  0.00  0.00    +0.000 C 
ENDROOT
BRANCH   4   7
ATOM      7  N   UNL     1     -55.256  36.957  76.107  0.00  0.00    +0.000 NA
ATOM      8  C   UNL     1     -54.201  37.031  75.073  0.00  0.00    +0.000 C 
ATOM      9  C   UNL     1     -54.578  37.879  73.851  0.00  0.00    +0.000 C 
ATOM     10  O   UNL     1     -55.777  37.392  73.238  0.00  0.00    +0.000 OA
ATOM     11  C   UNL     1     -56.856  37.383  74.182  0.00  0.00    +0.000 C 
ATOM     12  C   UNL     1     -56.511  36.548  75.429  0.00  0.00    +0.000 C 
ENDBRANCH   4   7
BRANCH   1  14
ATOM     13  C   UNL     1     -54.617  41.604  80.557  0.00  0.00    +0.000 C 
ATOM     14  C   UNL     1     -55.256  40.269  80.917  0.00  0.00    +0.000 C 
ENDBRANCH   1  14
TORSDOF 2
ENDMDL
MODEL 7
REMARK VINA RESULT:    -4.647     14.177     17.098
REMARK INTER + INTRA:          -5.437
REMARK INTER:                  -5.220
REMARK INTRA:                  -0.218
REMARK UNBOUND:                -0.247
REMARK  Name = 
REMARK  3 active torsions:
REMARK  status: ('A' for Active; 'I' for Inactive)
REMARK    1  A    between atoms: C_1  and  C_2
REMARK    2  A    between atoms: C_2  and  C_3
REMARK    3  A    between atoms: C_6  and  N_7
REMARK                            x       y       z     vdW  Elec       q    Type
REMARK                         _______ _______ _______ _____ _____    ______ ____
ROOT
ATOM      1  C   UNL     1     -45.225  39.616  83.883  0.00  0.00    +0.000 C 
ATOM      2  C   UNL     1     -43.886  38.965  83.521  0.00  0.00    +0.000 C 
ATOM      3  C   UNL     1     -42.711  39.908  83.790  0.00  0.00    +0.000 C 
ATOM      4  C   UNL     1     -42.653  40.440  85.242  0.00  0.00    +0.000 C 
ATOM      5  C   UNL     1     -44.046  40.977  85.650  0.00  0.00    +0.000 C 
ATOM      6  C   UNL     1     -45.192  40.008  85.362  0.00  0.00    +0.000 C 
ENDROOT
BRANCH   4   7
ATOM      7  N   UNL     1     -41.667  41.533  85.432  0.00  0.00    +0.000 NA
ATOM      8  C   UNL     1     -40.258  41.222  85.112  0.00  0.00    +0.000 C 
ATOM      9  C   UNL     1     -39.540  40.389  86.183  0.00  0.00    +0.000 C 
ATOM     10  O   UNL     1     -39.579  41.045  87.455  0.00  0.00    +0.000 OA
ATOM     11  C   UNL     1     -40.933  41.293  87.851  0.00  0.00    +0.000 C 
ATOM     12  C   UNL     1     -41.691  42.120  86.796  0.00  0.00    +0.000 C 
ENDBRANCH   4   7
BRANCH   1  14
ATOM     13  C   UNL     1     -47.504  39.354  82.741  0.00  0.00    +0.000 C 
ATOM     14  C   UNL     1     -46.393  38.677  83.533  0.00  0.00    +0.000 C 
ENDBRANCH   1  14
TORSDOF 2
ENDMDL
MODEL 8
REMARK VINA RESULT:    -4.515      4.317      5.277
REMARK INTER + INTRA:          -5.290
REMARK INTER:                  -5.039
REMARK INTRA:                  -0.251
REMARK UNBOUND:                -0.247
REMARK  Name = 
REMARK  3 active torsions:
REMARK  status: ('A' for Active; 'I' for Inactive)
REMARK    1  A    between atoms: C_1  and  C_2
REMARK    2  A    between atoms: C_2  and  C_3
REMARK    3  A    between atoms: C_6  and  N_7
REMARK                            x       y       z     vdW  Elec       q    Type
REMARK                         _______ _______ _______ _____ _____    ______ ____
ROOT
ATOM      1  C   UNL     1     -53.609  37.373  72.846  0.00  0.00    +0.000 C 
ATOM      2  C   UNL     1     -52.598  36.578  73.679  0.00  0.00    +0.000 C 
ATOM      3  C   UNL     1     -51.467  36.023  72.811  0.00  0.00    +0.000 C 
ATOM      4  C   UNL     1     -50.724  37.099  71.983  0.00  0.00    +0.000 C 
ATOM      5  C   UNL     1     -51.758  37.985  71.246  0.00  0.00    +0.000 C 
ATOM      6  C   UNL     1     -52.872  38.516  72.146  0.00  0.00    +0.000 C 
ENDROOT
BRANCH   4   7
ATOM      7  N   UNL     1     -49.800  36.532  70.969  0.00  0.00    +0.000 NA
ATOM      8  C   UNL     1     -48.972  35.382  71.392  0.00  0.00    +0.000 C 
ATOM      9  C   UNL     1     -47.773  35.762  72.271  0.00  0.00    +0.000 C 
ATOM     10  O   UNL     1     -46.928  36.707  71.605  0.00  0.00    +0.000 OA
ATOM     11  C   UNL     1     -47.668  37.881  71.249  0.00  0.00    +0.000 C 
ATOM     12  C   UNL     1     -48.887  37.539  70.373  0.00  0.00    +0.000 C 
ENDBRANCH   4   7
BRANCH   1  14
ATOM     13  C   UNL     1     -54.375  38.927  74.734  0.00  0.00    +0.000 C 
ATOM     14  C   UNL     1     -54.774  37.855  73.728  0.00  0.00    +0.000 C 
ENDBRANCH   1  14
TORSDOF 2
ENDMDL
MODEL 9
REMARK VINA RESULT:    -4.474      8.383      9.096
REMARK INTER + INTRA:          -5.245
REMARK INTER:                  -5.033
REMARK INTRA:                  -0.211
REMARK UNBOUND:                -0.247
REMARK  Name = 
REMARK  3 active torsions:
REMARK  status: ('A' for Active; 'I' for Inactive)
REMARK    1  A    between atoms: C_1  and  C_2
REMARK    2  A    between atoms: C_2  and  C_3
REMARK    3  A    between atoms: C_6  and  N_7
REMARK                            x       y       z     vdW  Elec       q    Type
REMARK                         _______ _______ _______ _____ _____    ______ ____
ROOT
ATOM      1  C   UNL     1     -54.803  39.078  77.691  0.00  0.00    +0.000 C 
ATOM      2  C   UNL     1     -55.479  37.703  77.739  0.00  0.00    +0.000 C 
ATOM      3  C   UNL     1     -56.280  37.427  76.465  0.00  0.00    +0.000 C 
ATOM      4  C   UNL     1     -55.452  37.552  75.163  0.00  0.00    +0.000 C 
ATOM      5  C   UNL     1     -54.666  38.885  75.179  0.00  0.00    +0.000 C 
ATOM      6  C   UNL     1     -53.883  39.127  76.470  0.00  0.00    +0.000 C 
ENDROOT
BRANCH   4   7
ATOM      7  N   UNL     1     -56.280  37.524  73.931  0.00  0.00    +0.000 NA
ATOM      8  C   UNL     1     -57.361  36.516  73.878  0.00  0.00    +0.000 C 
ATOM      9  C   UNL     1     -56.876  35.090  73.585  0.00  0.00    +0.000 C 
ATOM     10  O   UNL     1     -56.151  35.038  72.352  0.00  0.00    +0.000 OA
ATOM     11  C   UNL     1     -55.037  35.938  72.385  0.00  0.00    +0.000 C 
ATOM     12  C   UNL     1     -55.483  37.381  72.687  0.00  0.00    +0.000 C 
ENDBRANCH   4   7
BRANCH   1  14
ATOM     13  C   UNL     1     -54.781  40.375  79.901  0.00  0.00    +0.000 C 
ATOM     14  C   UNL     1     -54.068  39.364  79.012  0.00  0.00    +0.000 C 
ENDBRANCH   1  14
TORSDOF 2
ENDMDL
