MODEL 1
REMARK VINA RESULT:    -5.710      0.000      0.000
REMARK INTER + INTRA:          -6.564
REMARK INTER:                  -6.377
REMARK INTRA:                  -0.187
REMARK UNBOUND:                -0.187
REMARK  Name = 
REMARK  2 active torsions:
REMARK  status: ('A' for Active; 'I' for Inactive)
REMARK    1  A    between atoms: C_6  and  C_7
REMARK    2  A    between atoms: C_7  and  N_8
REMARK                            x       y       z     vdW  Elec       q    Type
REMARK                         _______ _______ _______ _____ _____    ______ ____
ROOT
ATOM      1 CL   UNL     1     -47.758  34.520  74.254  0.00  0.00    +0.000 Cl
ATOM      2  C   UNL     1     -47.727  35.953  73.301  0.00  0.00    +0.000 A 
ATOM      3  C   UNL     1     -47.540  37.188  73.918  0.00  0.00    +0.000 A 
ATOM      4  C   UNL     1     -47.503  38.345  73.145  0.00  0.00    +0.000 A 
ATOM      5  C   UNL     1     -47.653  38.263  71.759  0.00  0.00    +0.000 A 
ATOM      6  C   UNL     1     -47.851  37.024  71.126  0.00  0.00    +0.000 A 
ATOM      7  C   UNL     1     -47.881  35.865  71.915  0.00  0.00    +0.000 A 
ENDROOT
BRANCH   6   8
ATOM      8  C   UNL     1     -47.965  36.943  69.620  0.00  0.00    +0.000 C 
BRANCH   8   9
ATOM      9  N   UNL     1     -49.196  37.412  68.989  0.00  0.00    +0.000 NA
ATOM     10  C   UNL     1     -50.166  36.388  68.584  0.00  0.00    +0.000 C 
ATOM     11  C   UNL     1     -50.049  35.934  67.119  0.00  0.00    +0.000 C 
ATOM     12  O   UNL     1     -50.062  37.052  66.224  0.00  0.00    +0.000 OA
ATOM     13  C   UNL     1     -48.972  37.933  66.521  0.00  0.00    +0.000 C 
ATOM     14  C   UNL     1     -49.051  38.451  67.964  0.00  0.00    +0.000 C 
ENDBRANCH   8   9
ENDBRANCH   6   8
TORSDOF 2
ENDMDL
MODEL 2
REMARK VINA RESULT:    -5.681      3.516      5.911
REMARK INTER + INTRA:          -6.532
REMARK INTER:                  -6.346
REMARK INTRA:                  -0.187
REMARK UNBOUND:                -0.187
REMARK  Name = 
REMARK  2 active torsions:
REMARK  status: ('A' for Active; 'I' for Inactive)
REMARK    1  A    between atoms: C_6  and  C_7
REMARK    2  A    between atoms: C_7  and  N_8
REMARK                            x       y       z     vdW  Elec       q    Type
REMARK                         _______ _______ _______ _____ _____    ______ ____
ROOT
ATOM      1 CL   UNL     1     -49.623  34.289  67.121  0.00  0.00    +0.000 Cl
ATOM      2  C   UNL     1     -48.961  35.614  67.996  0.00  0.00    +0.000 A 
ATOM      3  C   UNL     1     -49.011  36.895  67.451  0.00  0.00    +0.000 A 
ATOM      4  C   UNL     1     -48.486  37.969  68.165  0.00  0.00    +0.000 A 
ATOM      5  C   UNL     1     -47.913  37.757  69.421  0.00  0.00    +0.000 A 
ATOM      6  C   UNL     1     -47.848  36.469  69.978  0.00  0.00    +0.000 A 
ATOM      7  C   UNL     1     -48.386  35.396  69.250  0.00  0.00    +0.000 A 
ENDROOT
BRANCH   6   8
ATOM      8  C   UNL     1     -47.269  36.259  71.358  0.00  0.00    +0.000 C 
BRANCH   8   9
ATOM      9  N   UNL     1     -48.024  36.742  72.511  0.00  0.00    +0.000 NA
ATOM     10  C   UNL     1     -47.441  37.856  73.267  0.00  0.00    +0.000 C 
ATOM     11  C   UNL     1     -46.601  37.438  74.486  0.00  0.00    +0.000 C 
ATOM     12  O   UNL     1     -47.329  36.548  75.340  0.00  0.00    +0.000 OA
ATOM     13  C   UNL     1     -47.707  35.371  74.617  0.00  0.00    +0.000 C 
ATOM     14  C   UNL     1     -48.582  35.719  73.403  0.00  0.00    +0.000 C 
ENDBRANCH   8   9
ENDBRANCH   6   8
TORSDOF 2
ENDMDL
MODEL 3
REMARK VINA RESULT:    -5.638      3.702      6.165
REMARK INTER + INTRA:          -6.484
REMARK INTER:                  -6.300
REMARK INTRA:                  -0.184
REMARK UNBOUND:                -0.187
REMARK  Name = 
REMARK  2 active torsions:
REMARK  status: ('A' for Active; 'I' for Inactive)
REMARK    1  A    between atoms: C_6  and  C_7
REMARK    2  A    between atoms: C_7  and  N_8
REMARK                            x       y       z     vdW  Elec       q    Type
REMARK                         _______ _______ _______ _____ _____    ______ ____
ROOT
ATOM      1 CL   UNL     1     -48.839  39.115  67.004  0.00  0.00    +0.000 Cl
ATOM      2  C   UNL     1     -48.654  37.668  67.918  0.00  0.00    +0.000 A 
ATOM      3  C   UNL     1     -49.106  36.459  67.394  0.00  0.00    +0.000 A 
ATOM      4  C   UNL     1     -48.946  35.287  68.128  0.00  0.00    +0.000 A 
ATOM      5  C   UNL     1     -48.333  35.329  69.382  0.00  0.00    +0.000 A 
ATOM      6  C   UNL     1     -47.880  36.543  69.925  0.00  0.00    +0.000 A 
ATOM      7  C   UNL     1     -48.043  37.716  69.173  0.00  0.00    +0.000 A 
ENDROOT
BRANCH   6   8
ATOM      8  C   UNL     1     -47.176  36.569  71.263  0.00  0.00    +0.000 C 
BRANCH   8   9
ATOM      9  N   UNL     1     -47.959  36.880  72.456  0.00  0.00    +0.000 NA
ATOM     10  C   UNL     1     -47.461  37.961  73.315  0.00  0.00    +0.000 C 
ATOM     11  C   UNL     1     -46.583  37.495  74.489  0.00  0.00    +0.000 C 
ATOM     12  O   UNL     1     -47.233  36.475  75.254  0.00  0.00    +0.000 OA
ATOM     13  C   UNL     1     -47.523  35.346  74.423  0.00  0.00    +0.000 C 
ATOM     14  C   UNL     1     -48.430  35.738  73.246  0.00  0.00    +0.000 C 
ENDBRANCH   8   9
ENDBRANCH   6   8
TORSDOF 2
ENDMDL
MODEL 4
REMARK VINA RESULT:    -5.485      1.462      2.095
REMARK INTER + INTRA:          -6.314
REMARK INTER:                  -6.130
REMARK INTRA:                  -0.183
REMARK UNBOUND:                -0.187
REMARK  Name = 
REMARK  2 active torsions:
REMARK  status: ('A' for Active; 'I' for Inactive)
REMARK    1  A    between atoms: C_6  and  C_7
REMARK    2  A    between atoms: C_7  and  N_8
REMARK                            x       y       z     vdW  Elec       q    Type
REMARK                         _______ _______ _______ _____ _____    ______ ____
ROOT
ATOM      1 CL   UNL     1     -46.613  37.194  74.346  0.00  0.00    +0.000 Cl
ATOM      2  C   UNL     1     -47.569  36.299  73.228  0.00  0.00    +0.000 A 
ATOM      3  C   UNL     1     -48.451  35.329  73.698  0.00  0.00    +0.000 A 
ATOM      4  C   UNL     1     -49.233  34.614  72.794  0.00  0.00    +0.000 A 
ATOM      5  C   UNL     1     -49.131  34.873  71.426  0.00  0.00    +0.000 A 
ATOM      6  C   UNL     1     -48.239  35.844  70.940  0.00  0.00    +0.000 A 
ATOM      7  C   UNL     1     -47.460  36.561  71.861  0.00  0.00    +0.000 A 
ENDROOT
BRANCH   6   8
ATOM      8  C   UNL     1     -48.171  36.149  69.461  0.00  0.00    +0.000 C 
BRANCH   8   9
ATOM      9  N   UNL     1     -48.751  37.400  68.981  0.00  0.00    +0.000 NA
ATOM     10  C   UNL     1     -50.048  37.792  69.547  0.00  0.00    +0.000 C 
ATOM     11  C   UNL     1     -51.269  37.360  68.717  0.00  0.00    +0.000 C 
ATOM     12  O   UNL     1     -51.146  37.777  67.352  0.00  0.00    +0.000 OA
ATOM     13  C   UNL     1     -49.969  37.208  66.768  0.00  0.00    +0.000 C 
ATOM     14  C   UNL     1     -48.706  37.630  67.533  0.00  0.00    +0.000 C 
ENDBRANCH   8   9
ENDBRANCH   6   8
TORSDOF 2
ENDMDL
MODEL 5
REMARK VINA RESULT:    -5.388     16.224     18.349
REMARK INTER + INTRA:          -6.206
REMARK INTER:                  -6.033
REMARK INTRA:                  -0.173
REMARK UNBOUND:                -0.187
REMARK  Name = 
REMARK  2 active torsions:
REMARK  status: ('A' for Active; 'I' for Inactive)
REMARK    1  A    between atoms: C_6  and  C_7
REMARK    2  A    between atoms: C_7  and  N_8
REMARK                            x       y       z     vdW  Elec       q    Type
REMARK                         _______ _______ _______ _____ _____    ______ ____
ROOT
ATOM      1 CL   UNL     1     -41.598  39.254  81.716  0.00  0.00    +0.000 Cl
ATOM      2  C   UNL     1     -40.937  39.913  83.162  0.00  0.00    +0.000 A 
ATOM      3  C   UNL     1     -39.632  39.597  83.531  0.00  0.00    +0.000 A 
ATOM      4  C   UNL     1     -39.094  40.140  84.694  0.00  0.00    +0.000 A 
ATOM      5  C   UNL     1     -39.862  40.999  85.483  0.00  0.00    +0.000 A 
ATOM      6  C   UNL     1     -41.183  41.319  85.126  0.00  0.00    +0.000 A 
ATOM      7  C   UNL     1     -41.712  40.769  83.948  0.00  0.00    +0.000 A 
ENDROOT
BRANCH   6   8
ATOM      8  C   UNL     1     -41.990  42.287  85.962  0.00  0.00    +0.000 C 
BRANCH   8   9
ATOM      9  N   UNL     1     -42.660  41.782  87.157  0.00  0.00    +0.000 NA
ATOM     10  C   UNL     1     -44.098  42.051  87.276  0.00  0.00    +0.000 C 
ATOM     11  C   UNL     1     -44.452  43.311  88.085  0.00  0.00    +0.000 C 
ATOM     12  O   UNL     1     -43.812  43.305  89.366  0.00  0.00    +0.000 OA
ATOM     13  C   UNL     1     -42.390  43.247  89.205  0.00  0.00    +0.000 C 
ATOM     14  C   UNL     1     -41.967  41.988  88.433  0.00  0.00    +0.000 C 
ENDBRANCH   8   9
ENDBRANCH   6   8
TORSDOF 2
ENDMDL
MODEL 6
REMARK VINA RESULT:    -5.203     16.935     17.978
REMARK INTER + INTRA:          -5.998
REMARK INTER:                  -5.844
REMARK INTRA:                  -0.154
REMARK UNBOUND:                -0.187
REMARK  Name = 
REMARK  2 active torsions:
REMARK  status: ('A' for Active; 'I' for Inactive)
REMARK    1  A    between atoms: C_6  and  C_7
REMARK    2  A    between atoms: C_7  and  N_8
REMARK                            x       y       z     vdW  Elec       q    Type
REMARK                         _______ _______ _______ _____ _____    ______ ____
ROOT
ATOM      1 CL   UNL     1     -38.544  37.930  87.380  0.00  0.00    +0.000 Cl
ATOM      2  C   UNL     1     -39.369  38.766  86.122  0.00  0.00    +0.000 A 
ATOM      3  C   UNL     1     -38.705  39.048  84.931  0.00  0.00    +0.000 A 
ATOM      4  C   UNL     1     -39.376  39.714  83.909  0.00  0.00    +0.000 A 
ATOM      5  C   UNL     1     -40.709  40.094  84.082  0.00  0.00    +0.000 A 
ATOM      6  C   UNL     1     -41.387  39.822  85.282  0.00  0.00    +0.000 A 
ATOM      7  C   UNL     1     -40.701  39.146  86.302  0.00  0.00    +0.000 A 
ENDROOT
BRANCH   6   8
ATOM      8  C   UNL     1     -42.843  40.196  85.441  0.00  0.00    +0.000 C 
BRANCH   8   9
ATOM      9  N   UNL     1     -43.201  41.612  85.456  0.00  0.00    +0.000 NA
ATOM     10  C   UNL     1     -42.229  42.536  86.054  0.00  0.00    +0.000 C 
ATOM     11  C   UNL     1     -42.477  42.858  87.537  0.00  0.00    +0.000 C 
ATOM     12  O   UNL     1     -43.822  43.297  87.758  0.00  0.00    +0.000 OA
ATOM     13  C   UNL     1     -44.745  42.281  87.349  0.00  0.00    +0.000 C 
ATOM     14  C   UNL     1     -44.572  41.937  85.862  0.00  0.00    +0.000 C 
ENDBRANCH   8   9
ENDBRANCH   6   8
TORSDOF 2
ENDMDL
MODEL 7
REMARK VINA RESULT:    -5.188     14.804     17.340
REMARK INTER + INTRA:          -5.982
REMARK INTER:                  -5.907
REMARK INTRA:                  -0.075
REMARK UNBOUND:                -0.187
REMARK  Name = 
REMARK  2 active torsions:
REMARK  status: ('A' for Active; 'I' for Inactive)
REMARK    1  A    between atoms: C_6  and  C_7
REMARK    2  A    between atoms: C_7  and  N_8
REMARK                            x       y       z     vdW  Elec       q    Type
REMARK                         _______ _______ _______ _____ _____    ______ ____
ROOT
ATOM      1 CL   UNL     1     -44.655  38.406  82.873  0.00  0.00    +0.000 Cl
ATOM      2  C   UNL     1     -43.026  38.901  83.129  0.00  0.00    +0.000 A 
ATOM      3  C   UNL     1     -42.175  39.061  82.037  0.00  0.00    +0.000 A 
ATOM      4  C   UNL     1     -40.861  39.473  82.244  0.00  0.00    +0.000 A 
ATOM      5  C   UNL     1     -40.405  39.724  83.539  0.00  0.00    +0.000 A 
ATOM      6  C   UNL     1     -41.251  39.559  84.648  0.00  0.00    +0.000 A 
ATOM      7  C   UNL     1     -42.574  39.148  84.426  0.00  0.00    +0.000 A 
ENDROOT
BRANCH   6   8
ATOM      8  C   UNL     1     -40.760  39.879  86.042  0.00  0.00    +0.000 C 
BRANCH   8   9
ATOM      9  N   UNL     1     -40.650  41.282  86.435  0.00  0.00    +0.000 NA
ATOM     10  C   UNL     1     -40.754  41.579  87.869  0.00  0.00    +0.000 C 
ATOM     11  C   UNL     1     -42.165  41.960  88.346  0.00  0.00    +0.000 C 
ATOM     12  O   UNL     1     -42.718  43.015  87.551  0.00  0.00    +0.000 OA
ATOM     13  C   UNL     1     -42.791  42.610  86.179  0.00  0.00    +0.000 C 
ATOM     14  C   UNL     1     -41.403  42.249  85.629  0.00  0.00    +0.000 C 
ENDBRANCH   8   9
ENDBRANCH   6   8
TORSDOF 2
ENDMDL
MODEL 8
REMARK VINA RESULT:    -5.119      1.313      1.934
REMARK INTER + INTRA:          -5.905
REMARK INTER:                  -5.911
REMARK INTRA:                   0.005
REMARK UNBOUND:                -0.187
REMARK  Name = 
REMARK  2 active torsions:
REMARK  status: ('A' for Active; 'I' for Inactive)
REMARK    1  A    between atoms: C_6  and  C_7
REMARK    2  A    between atoms: C_7  and  N_8
REMARK                            x       y       z     vdW  Elec       q    Type
REMARK                         _______ _______ _______ _____ _____    ______ ____
ROOT
ATOM      1 CL   UNL     1     -47.700  34.994  74.325  0.00  0.00    +0.000 Cl
ATOM      2  C   UNL     1     -47.768  36.092  73.001  0.00  0.00    +0.000 A 
ATOM      3  C   UNL     1     -47.627  37.459  73.231  0.00  0.00    +0.000 A 
ATOM      4  C   UNL     1     -47.671  38.346  72.158  0.00  0.00    +0.000 A 
ATOM      5  C   UNL     1     -47.853  37.862  70.861  0.00  0.00    +0.000 A 
ATOM      6  C   UNL     1     -48.004  36.487  70.617  0.00  0.00    +0.000 A 
ATOM      7  C   UNL     1     -47.953  35.603  71.706  0.00  0.00    +0.000 A 
ENDROOT
BRANCH   6   8
ATOM      8  C   UNL     1     -48.153  35.971  69.204  0.00  0.00    +0.000 C 
BRANCH   8   9
ATOM      9  N   UNL     1     -49.499  35.745  68.684  0.00  0.00    +0.000 NA
ATOM     10  C   UNL     1     -49.881  36.494  67.481  0.00  0.00    +0.000 C 
ATOM     11  C   UNL     1     -50.628  37.811  67.753  0.00  0.00    +0.000 C 
ATOM     12  O   UNL     1     -51.749  37.605  68.620  0.00  0.00    +0.000 OA
ATOM     13  C   UNL     1     -51.311  37.059  69.869  0.00  0.00    +0.000 C 
ATOM     14  C   UNL     1     -50.585  35.720  69.669  0.00  0.00    +0.000 C 
ENDBRANCH   8   9
ENDBRANCH   6   8
TORSDOF 2
ENDMDL
MODEL 9
REMARK VINA RESULT:    -5.099      3.418      5.331
REMARK INTER + INTRA:          -5.883
REMARK INTER:                  -5.795
REMARK INTRA:                  -0.088
REMARK UNBOUND:                -0.187
REMARK  Name = 
REMARK  2 active torsions:
REMARK  status: ('A' for Active; 'I' for Inactive)
REMARK    1  A    between atoms: C_6  and  C_7
REMARK    2  A    between atoms: C_7  and  N_8
REMARK                            x       y       z     vdW  Elec       q    Type
REMARK                         _______ _______ _______ _____ _____    ______ ____
ROOT
ATOM      1 CL   UNL     1     -48.869  39.154  67.127  0.00  0.00    +0.000 Cl
ATOM      2  C   UNL     1     -48.648  37.691  68.006  0.00  0.00    +0.000 A 
ATOM      3  C   UNL     1     -49.028  36.479  67.434  0.00  0.00    +0.000 A 
ATOM      4  C   UNL     1     -48.837  35.294  68.140  0.00  0.00    +0.000 A 
ATOM      5  C   UNL     1     -48.267  35.326  69.415  0.00  0.00    +0.000 A 
ATOM      6  C   UNL     1     -47.887  36.544  70.005  0.00  0.00    +0.000 A 
ATOM      7  C   UNL     1     -48.080  37.729  69.281  0.00  0.00    +0.000 A 
ENDROOT
BRANCH   6   8
ATOM      8  C   UNL     1     -47.227  36.562  71.365  0.00  0.00    +0.000 C 
BRANCH   8   9
ATOM      9  N   UNL     1     -48.075  36.478  72.552  0.00  0.00    +0.000 NA
ATOM     10  C   UNL     1     -48.210  35.158  73.180  0.00  0.00    +0.000 C 
ATOM     11  C   UNL     1     -49.437  34.351  72.723  0.00  0.00    +0.000 C 
ATOM     12  O   UNL     1     -50.641  35.116  72.848  0.00  0.00    +0.000 OA
ATOM     13  C   UNL     1     -50.553  36.305  72.055  0.00  0.00    +0.000 C 
ATOM     14  C   UNL     1     -49.364  37.176  72.486  0.00  0.00    +0.000 C 
ENDBRANCH   8   9
ENDBRANCH   6   8
TORSDOF 2
ENDMDL
