MODEL 1
REMARK VINA RESULT:    -5.831      0.000      0.000
REMARK INTER + INTRA:          -6.756
REMARK INTER:                  -6.513
REMARK INTRA:                  -0.243
REMARK UNBOUND:                -0.243
REMARK  Name = 
REMARK  2 active torsions:
REMARK  status: ('A' for Active; 'I' for Inactive)
REMARK    1  A    between atoms: C_8  and  C_9
REMARK    2  A    between atoms: C_9  and  N_10
REMARK                            x       y       z     vdW  Elec       q    Type
REMARK                         _______ _______ _______ _____ _____    ______ ____
ROOT
ATOM      1  F   UNL     1     -47.262  35.149  70.471  0.00  0.00    +0.000 F 
ATOM      2  C   UNL     1     -47.676  36.075  71.347  0.00  0.00    +0.000 A 
ATOM      3  C   UNL     1     -47.714  35.742  72.699  0.00  0.00    +0.000 A 
ATOM      4  C   UNL     1     -48.110  36.699  73.626  0.00  0.00    +0.000 A 
ATOM      5 BR   UNL     1     -48.123  36.277  75.467  0.00  0.00    +0.000 Br
ATOM      6  C   UNL     1     -48.481  37.976  73.207  0.00  0.00    +0.000 A 
ATOM      7  C   UNL     1     -48.446  38.299  71.846  0.00  0.00    +0.000 A 
ATOM      8  C   UNL     1     -48.037  37.350  70.895  0.00  0.00    +0.000 A 
ENDROOT
BRANCH   8   9
ATOM      9  C   UNL     1     -47.899  37.730  69.444  0.00  0.00    +0.000 C 
BRANCH   9  10
ATOM     10  N   UNL     1     -49.105  38.024  68.682  0.00  0.00    +0.000 NA
ATOM     11  C   UNL     1     -50.078  36.942  68.507  0.00  0.00    +0.000 C 
ATOM     12  C   UNL     1     -49.996  36.213  67.157  0.00  0.00    +0.000 C 
ATOM     13  O   UNL     1     -50.013  37.135  66.061  0.00  0.00    +0.000 OA
ATOM     14  C   UNL     1     -48.897  38.028  66.157  0.00  0.00    +0.000 C 
ATOM     15  C   UNL     1     -48.933  38.828  67.467  0.00  0.00    +0.000 C 
ENDBRANCH   9  10
ENDBRANCH   8   9
TORSDOF 2
ENDMDL
MODEL 2
REMARK VINA RESULT:    -5.814      1.921      2.824
REMARK INTER + INTRA:          -6.737
REMARK INTER:                  -6.527
REMARK INTRA:                  -0.210
REMARK UNBOUND:                -0.243
REMARK  Name = 
REMARK  2 active torsions:
REMARK  status: ('A' for Active; 'I' for Inactive)
REMARK    1  A    between atoms: C_8  and  C_9
REMARK    2  A    between atoms: C_9  and  N_10
REMARK                            x       y       z     vdW  Elec       q    Type
REMARK                         _______ _______ _______ _____ _____    ______ ____
ROOT
ATOM      1  F   UNL     1     -47.735  38.300  68.917  0.00  0.00    +0.000 F 
ATOM      2  C   UNL     1     -47.703  37.434  69.940  0.00  0.00    +0.000 A 
ATOM      3  C   UNL     1     -47.446  37.924  71.219  0.00  0.00    +0.000 A 
ATOM      4  C   UNL     1     -47.440  37.047  72.297  0.00  0.00    +0.000 A 
ATOM      5 BR   UNL     1     -47.138  37.703  74.042  0.00  0.00    +0.000 Br
ATOM      6  C   UNL     1     -47.674  35.687  72.100  0.00  0.00    +0.000 A 
ATOM      7  C   UNL     1     -47.925  35.203  70.812  0.00  0.00    +0.000 A 
ATOM      8  C   UNL     1     -47.947  36.076  69.712  0.00  0.00    +0.000 A 
ENDROOT
BRANCH   8   9
ATOM      9  C   UNL     1     -48.321  35.572  68.342  0.00  0.00    +0.000 C 
BRANCH   9  10
ATOM     10  N   UNL     1     -49.719  35.624  67.937  0.00  0.00    +0.000 NA
ATOM     11  C   UNL     1     -50.139  36.745  67.092  0.00  0.00    +0.000 C 
ATOM     12  C   UNL     1     -50.825  37.897  67.843  0.00  0.00    +0.000 C 
ATOM     13  O   UNL     1     -51.890  37.421  68.674  0.00  0.00    +0.000 OA
ATOM     14  C   UNL     1     -51.378  36.497  69.642  0.00  0.00    +0.000 C 
ATOM     15  C   UNL     1     -50.712  35.291  68.964  0.00  0.00    +0.000 C 
ENDBRANCH   9  10
ENDBRANCH   8   9
TORSDOF 2
ENDMDL
MODEL 3
REMARK VINA RESULT:    -5.570      1.620      2.072
REMARK INTER + INTRA:          -6.464
REMARK INTER:                  -6.198
REMARK INTRA:                  -0.266
REMARK UNBOUND:                -0.243
REMARK  Name = 
REMARK  2 active torsions:
REMARK  status: ('A' for Active; 'I' for Inactive)
REMARK    1  A    between atoms: C_8  and  C_9
REMARK    2  A    between atoms: C_9  and  N_10
REMARK                            x       y       z     vdW  Elec       q    Type
REMARK                         _______ _______ _______ _____ _____    ______ ____
ROOT
ATOM      1  F   UNL     1     -46.778  35.453  70.414  0.00  0.00    +0.000 F 
ATOM      2  C   UNL     1     -47.434  36.375  71.134  0.00  0.00    +0.000 A 
ATOM      3  C   UNL     1     -47.323  36.338  72.522  0.00  0.00    +0.000 A 
ATOM      4  C   UNL     1     -47.969  37.304  73.284  0.00  0.00    +0.000 A 
ATOM      5 BR   UNL     1     -47.792  37.295  75.164  0.00  0.00    +0.000 Br
ATOM      6  C   UNL     1     -48.735  38.293  72.666  0.00  0.00    +0.000 A 
ATOM      7  C   UNL     1     -48.845  38.318  71.272  0.00  0.00    +0.000 A 
ATOM      8  C   UNL     1     -48.189  37.358  70.485  0.00  0.00    +0.000 A 
ENDROOT
BRANCH   8   9
ATOM      9  C   UNL     1     -48.222  37.448  68.981  0.00  0.00    +0.000 C 
BRANCH   9  10
ATOM     10  N   UNL     1     -49.249  36.707  68.260  0.00  0.00    +0.000 NA
ATOM     11  C   UNL     1     -50.619  36.769  68.776  0.00  0.00    +0.000 C 
ATOM     12  C   UNL     1     -51.043  35.561  69.627  0.00  0.00    +0.000 C 
ATOM     13  O   UNL     1     -50.776  34.325  68.955  0.00  0.00    +0.000 OA
ATOM     14  C   UNL     1     -49.375  34.211  68.681  0.00  0.00    +0.000 C 
ATOM     15  C   UNL     1     -48.883  35.365  67.794  0.00  0.00    +0.000 C 
ENDBRANCH   9  10
ENDBRANCH   8   9
TORSDOF 2
ENDMDL
MODEL 4
REMARK VINA RESULT:    -5.537      3.999      5.913
REMARK INTER + INTRA:          -6.428
REMARK INTER:                  -6.219
REMARK INTRA:                  -0.209
REMARK UNBOUND:                -0.243
REMARK  Name = 
REMARK  2 active torsions:
REMARK  status: ('A' for Active; 'I' for Inactive)
REMARK    1  A    between atoms: C_8  and  C_9
REMARK    2  A    between atoms: C_9  and  N_10
REMARK                            x       y       z     vdW  Elec       q    Type
REMARK                         _______ _______ _______ _____ _____    ______ ____
ROOT
ATOM      1  F   UNL     1     -47.143  35.114  70.200  0.00  0.00    +0.000 F 
ATOM      2  C   UNL     1     -48.059  36.088  70.097  0.00  0.00    +0.000 A 
ATOM      3  C   UNL     1     -48.092  36.850  68.931  0.00  0.00    +0.000 A 
ATOM      4  C   UNL     1     -49.054  37.842  68.792  0.00  0.00    +0.000 A 
ATOM      5 BR   UNL     1     -49.140  38.853  67.199  0.00  0.00    +0.000 Br
ATOM      6  C   UNL     1     -49.970  38.085  69.815  0.00  0.00    +0.000 A 
ATOM      7  C   UNL     1     -49.926  37.319  70.984  0.00  0.00    +0.000 A 
ATOM      8  C   UNL     1     -48.969  36.303  71.139  0.00  0.00    +0.000 A 
ENDROOT
BRANCH   8   9
ATOM      9  C   UNL     1     -48.988  35.410  72.352  0.00  0.00    +0.000 C 
BRANCH   9  10
ATOM     10  N   UNL     1     -47.864  35.465  73.277  0.00  0.00    +0.000 NA
ATOM     11  C   UNL     1     -47.998  34.752  74.550  0.00  0.00    +0.000 C 
ATOM     12  C   UNL     1     -48.389  35.635  75.746  0.00  0.00    +0.000 C 
ATOM     13  O   UNL     1     -47.533  36.778  75.857  0.00  0.00    +0.000 OA
ATOM     14  C   UNL     1     -47.620  37.570  74.666  0.00  0.00    +0.000 C 
ATOM     15  C   UNL     1     -47.202  36.765  73.427  0.00  0.00    +0.000 C 
ENDBRANCH   9  10
ENDBRANCH   8   9
TORSDOF 2
ENDMDL
MODEL 5
REMARK VINA RESULT:    -5.489      1.542      2.271
REMARK INTER + INTRA:          -6.374
REMARK INTER:                  -6.128
REMARK INTRA:                  -0.246
REMARK UNBOUND:                -0.243
REMARK  Name = 
REMARK  2 active torsions:
REMARK  status: ('A' for Active; 'I' for Inactive)
REMARK    1  A    between atoms: C_8  and  C_9
REMARK    2  A    between atoms: C_9  and  N_10
REMARK                            x       y       z     vdW  Elec       q    Type
REMARK                         _______ _______ _______ _____ _____    ______ ____
ROOT
ATOM      1  F   UNL     1     -49.157  39.265  72.016  0.00  0.00    +0.000 F 
ATOM      2  C   UNL     1     -48.693  38.073  72.418  0.00  0.00    +0.000 A 
ATOM      3  C   UNL     1     -48.807  37.735  73.765  0.00  0.00    +0.000 A 
ATOM      4  C   UNL     1     -48.362  36.490  74.195  0.00  0.00    +0.000 A 
ATOM      5 BR   UNL     1     -48.551  35.999  76.009  0.00  0.00    +0.000 Br
ATOM      6  C   UNL     1     -47.792  35.594  73.291  0.00  0.00    +0.000 A 
ATOM      7  C   UNL     1     -47.676  35.946  71.942  0.00  0.00    +0.000 A 
ATOM      8  C   UNL     1     -48.131  37.193  71.486  0.00  0.00    +0.000 A 
ENDROOT
BRANCH   8   9
ATOM      9  C   UNL     1     -48.103  37.529  70.018  0.00  0.00    +0.000 C 
BRANCH   9  10
ATOM     10  N   UNL     1     -48.906  36.728  69.103  0.00  0.00    +0.000 NA
ATOM     11  C   UNL     1     -48.502  36.697  67.695  0.00  0.00    +0.000 C 
ATOM     12  C   UNL     1     -49.291  37.643  66.777  0.00  0.00    +0.000 C 
ATOM     13  O   UNL     1     -50.704  37.472  66.935  0.00  0.00    +0.000 OA
ATOM     14  C   UNL     1     -51.080  37.745  68.290  0.00  0.00    +0.000 C 
ATOM     15  C   UNL     1     -50.361  36.806  69.270  0.00  0.00    +0.000 C 
ENDBRANCH   9  10
ENDBRANCH   8   9
TORSDOF 2
ENDMDL
MODEL 6
REMARK VINA RESULT:    -5.466      2.075      2.829
REMARK INTER + INTRA:          -6.348
REMARK INTER:                  -6.088
REMARK INTRA:                  -0.260
REMARK UNBOUND:                -0.243
REMARK  Name = 
REMARK  2 active torsions:
REMARK  status: ('A' for Active; 'I' for Inactive)
REMARK    1  A    between atoms: C_8  and  C_9
REMARK    2  A    between atoms: C_9  and  N_10
REMARK                            x       y       z     vdW  Elec       q    Type
REMARK                         _______ _______ _______ _____ _____    ______ ____
ROOT
ATOM      1  F   UNL     1     -49.998  33.944  72.475  0.00  0.00    +0.000 F 
ATOM      2  C   UNL     1     -49.052  34.836  72.147  0.00  0.00    +0.000 A 
ATOM      3  C   UNL     1     -48.510  35.632  73.154  0.00  0.00    +0.000 A 
ATOM      4  C   UNL     1     -47.506  36.540  72.840  0.00  0.00    +0.000 A 
ATOM      5 BR   UNL     1     -46.731  37.594  74.201  0.00  0.00    +0.000 Br
ATOM      6  C   UNL     1     -47.055  36.665  71.527  0.00  0.00    +0.000 A 
ATOM      7  C   UNL     1     -47.609  35.865  70.521  0.00  0.00    +0.000 A 
ATOM      8  C   UNL     1     -48.616  34.934  70.821  0.00  0.00    +0.000 A 
ENDROOT
BRANCH   8   9
ATOM      9  C   UNL     1     -49.137  34.001  69.759  0.00  0.00    +0.000 C 
BRANCH   9  10
ATOM     10  N   UNL     1     -50.166  34.485  68.849  0.00  0.00    +0.000 NA
ATOM     11  C   UNL     1     -49.739  34.944  67.525  0.00  0.00    +0.000 C 
ATOM     12  C   UNL     1     -49.595  36.468  67.386  0.00  0.00    +0.000 C 
ATOM     13  O   UNL     1     -50.771  37.150  67.839  0.00  0.00    +0.000 OA
ATOM     14  C   UNL     1     -51.010  36.845  69.218  0.00  0.00    +0.000 C 
ATOM     15  C   UNL     1     -51.208  35.337  69.432  0.00  0.00    +0.000 C 
ENDBRANCH   9  10
ENDBRANCH   8   9
TORSDOF 2
ENDMDL
MODEL 7
REMARK VINA RESULT:    -5.293      2.370      3.198
REMARK INTER + INTRA:          -6.155
REMARK INTER:                  -5.931
REMARK INTRA:                  -0.223
REMARK UNBOUND:                -0.243
REMARK  Name = 
REMARK  2 active torsions:
REMARK  status: ('A' for Active; 'I' for Inactive)
REMARK    1  A    between atoms: C_8  and  C_9
REMARK    2  A    between atoms: C_9  and  N_10
REMARK                            x       y       z     vdW  Elec       q    Type
REMARK                         _______ _______ _______ _____ _____    ______ ____
ROOT
ATOM      1  F   UNL     1     -50.983  37.603  72.124  0.00  0.00    +0.000 F 
ATOM      2  C   UNL     1     -50.021  36.998  72.835  0.00  0.00    +0.000 A 
ATOM      3  C   UNL     1     -49.695  37.514  74.087  0.00  0.00    +0.000 A 
ATOM      4  C   UNL     1     -48.722  36.882  74.853  0.00  0.00    +0.000 A 
ATOM      5 BR   UNL     1     -48.301  37.543  76.571  0.00  0.00    +0.000 Br
ATOM      6  C   UNL     1     -48.068  35.750  74.368  0.00  0.00    +0.000 A 
ATOM      7  C   UNL     1     -48.398  35.243  73.107  0.00  0.00    +0.000 A 
ATOM      8  C   UNL     1     -49.386  35.860  72.323  0.00  0.00    +0.000 A 
ENDROOT
BRANCH   8   9
ATOM      9  C   UNL     1     -49.815  35.253  71.013  0.00  0.00    +0.000 C 
BRANCH   9  10
ATOM     10  N   UNL     1     -48.789  34.880  70.048  0.00  0.00    +0.000 NA
ATOM     11  C   UNL     1     -48.041  35.962  69.402  0.00  0.00    +0.000 C 
ATOM     12  C   UNL     1     -48.532  36.335  67.994  0.00  0.00    +0.000 C 
ATOM     13  O   UNL     1     -48.643  35.180  67.154  0.00  0.00    +0.000 OA
ATOM     14  C   UNL     1     -49.573  34.251  67.722  0.00  0.00    +0.000 C 
ATOM     15  C   UNL     1     -49.126  33.796  69.119  0.00  0.00    +0.000 C 
ENDBRANCH   9  10
ENDBRANCH   8   9
TORSDOF 2
ENDMDL
MODEL 8
REMARK VINA RESULT:    -5.229      3.652      5.540
REMARK INTER + INTRA:          -6.084
REMARK INTER:                  -5.817
REMARK INTRA:                  -0.267
REMARK UNBOUND:                -0.243
REMARK  Name = 
REMARK  2 active torsions:
REMARK  status: ('A' for Active; 'I' for Inactive)
REMARK    1  A    between atoms: C_8  and  C_9
REMARK    2  A    between atoms: C_9  and  N_10
REMARK                            x       y       z     vdW  Elec       q    Type
REMARK                         _______ _______ _______ _____ _____    ______ ____
ROOT
ATOM      1  F   UNL     1     -47.421  36.268  70.083  0.00  0.00    +0.000 F 
ATOM      2  C   UNL     1     -48.420  36.785  69.353  0.00  0.00    +0.000 A 
ATOM      3  C   UNL     1     -48.123  37.792  68.437  0.00  0.00    +0.000 A 
ATOM      4  C   UNL     1     -49.139  38.317  67.648  0.00  0.00    +0.000 A 
ATOM      5 BR   UNL     1     -48.744  39.651  66.370  0.00  0.00    +0.000 Br
ATOM      6  C   UNL     1     -50.447  37.853  67.781  0.00  0.00    +0.000 A 
ATOM      7  C   UNL     1     -50.737  36.846  68.708  0.00  0.00    +0.000 A 
ATOM      8  C   UNL     1     -49.722  36.294  69.506  0.00  0.00    +0.000 A 
ENDROOT
BRANCH   8   9
ATOM      9  C   UNL     1     -50.015  35.138  70.427  0.00  0.00    +0.000 C 
BRANCH   9  10
ATOM     10  N   UNL     1     -50.207  35.408  71.845  0.00  0.00    +0.000 NA
ATOM     11  C   UNL     1     -50.520  36.785  72.237  0.00  0.00    +0.000 C 
ATOM     12  C   UNL     1     -49.321  37.598  72.750  0.00  0.00    +0.000 C 
ATOM     13  O   UNL     1     -48.610  36.894  73.776  0.00  0.00    +0.000 OA
ATOM     14  C   UNL     1     -48.122  35.648  73.264  0.00  0.00    +0.000 C 
ATOM     15  C   UNL     1     -49.272  34.759  72.769  0.00  0.00    +0.000 C 
ENDBRANCH   9  10
ENDBRANCH   8   9
TORSDOF 2
ENDMDL
MODEL 9
REMARK VINA RESULT:    -5.154      2.047      2.605
REMARK INTER + INTRA:          -5.999
REMARK INTER:                  -5.779
REMARK INTRA:                  -0.220
REMARK UNBOUND:                -0.243
REMARK  Name = 
REMARK  2 active torsions:
REMARK  status: ('A' for Active; 'I' for Inactive)
REMARK    1  A    between atoms: C_8  and  C_9
REMARK    2  A    between atoms: C_9  and  N_10
REMARK                            x       y       z     vdW  Elec       q    Type
REMARK                         _______ _______ _______ _____ _____    ______ ____
ROOT
ATOM      1  F   UNL     1     -50.757  38.864  71.369  0.00  0.00    +0.000 F 
ATOM      2  C   UNL     1     -49.872  37.915  71.707  0.00  0.00    +0.000 A 
ATOM      3  C   UNL     1     -48.875  38.232  72.627  0.00  0.00    +0.000 A 
ATOM      4  C   UNL     1     -47.968  37.253  73.014  0.00  0.00    +0.000 A 
ATOM      5 BR   UNL     1     -46.639  37.654  74.295  0.00  0.00    +0.000 Br
ATOM      6  C   UNL     1     -48.044  35.969  72.476  0.00  0.00    +0.000 A 
ATOM      7  C   UNL     1     -49.044  35.662  71.547  0.00  0.00    +0.000 A 
ATOM      8  C   UNL     1     -49.978  36.634  71.153  0.00  0.00    +0.000 A 
ENDROOT
BRANCH   8   9
ATOM      9  C   UNL     1     -51.117  36.274  70.236  0.00  0.00    +0.000 C 
BRANCH   9  10
ATOM     10  N   UNL     1     -50.905  36.352  68.796  0.00  0.00    +0.000 NA
ATOM     11  C   UNL     1     -50.020  35.355  68.187  0.00  0.00    +0.000 C 
ATOM     12  C   UNL     1     -48.585  35.839  67.927  0.00  0.00    +0.000 C 
ATOM     13  O   UNL     1     -48.571  37.080  67.212  0.00  0.00    +0.000 OA
ATOM     14  C   UNL     1     -49.254  38.087  67.969  0.00  0.00    +0.000 C 
ATOM     15  C   UNL     1     -50.715  37.692  68.233  0.00  0.00    +0.000 C 
ENDBRANCH   9  10
ENDBRANCH   8   9
TORSDOF 2
ENDMDL
