REMARK  Name = 
REMARK  3 active torsions:
REMARK  status: ('A' for Active; 'I' for Inactive)
REMARK    1  A    between atoms: C_4  and  C_5
REMARK    2  A    between atoms: C_5  and  C_6
REMARK    3  A    between atoms: C_6  and  N_7
REMARK                            x       y       z     vdW  Elec       q    Type
REMARK                         _______ _______ _______ _____ _____    ______ ____
ROOT
ATOM      1  C   UNL     1       2.760  -0.592  -0.284  0.00  0.00    +0.000 C 
ENDROOT
BRANCH   1   5
ATOM      2  C   UNL     1      -1.493   0.458  -0.203  0.00  0.00    +0.000 C 
ATOM      3  C   UNL     1      -1.111  -0.951   0.227  0.00  0.00    +0.000 C 
ATOM      4  C   UNL     1       0.305  -1.311  -0.212  0.00  0.00    +0.000 C 
ATOM      5  C   UNL     1       1.349  -0.286   0.269  0.00  0.00    +0.000 C 
ATOM      6  C   UNL     1       0.935   1.138  -0.143  0.00  0.00    +0.000 C 
ATOM      7  C   UNL     1      -0.483   1.481   0.304  0.00  0.00    +0.000 C 
ENDBRANCH   1   5
BRANCH   1   8
ATOM      8  C   UNL     1       3.290  -1.971   0.140  0.00  0.00    +0.000 C 
BRANCH   8   9
ATOM      9  N   UNL     1       4.644  -2.287  -0.349  0.00  0.00    +0.000 NA
ATOM     10  C   UNL     1       4.763  -2.287  -1.826  0.00  0.00    +0.000 C 
ATOM     11  C   UNL     1       3.999  -3.434  -2.503  0.00  0.00    +0.000 C 
ATOM     12  O   UNL     1       4.451  -4.707  -2.024  0.00  0.00    +0.000 OA
ATOM     13  C   UNL     1       4.328  -4.796  -0.598  0.00  0.00    +0.000 C 
ATOM     14  C   UNL     1       5.054  -3.638   0.117  0.00  0.00    +0.000 C 
ENDBRANCH   8   9
ENDBRANCH   1   8
TORSDOF 3
