REMARK  Name = 
REMARK  3 active torsions:
REMARK  status: ('A' for Active; 'I' for Inactive)
REMARK    1  A    between atoms: C_1  and  C_2
REMARK    2  A    between atoms: C_2  and  C_3
REMARK    3  A    between atoms: C_6  and  N_7
REMARK                            x       y       z     vdW  Elec       q    Type
REMARK                         _______ _______ _______ _____ _____    ______ ____
ROOT
ATOM      1  C   UNL     1       2.985   0.057  -1.183  0.00  0.00    +0.000 C 
ATOM      2  C   UNL     1       3.766  -1.260  -1.260  0.00  0.00    +0.000 C 
ATOM      3  C   UNL     1       4.340  -1.492  -2.659  0.00  0.00    +0.000 C 
ATOM      4  C   UNL     1       5.227  -0.333  -3.174  0.00  0.00    +0.000 C 
ATOM      5  C   UNL     1       4.486   1.011  -2.972  0.00  0.00    +0.000 C 
ATOM      6  C   UNL     1       3.924   1.203  -1.564  0.00  0.00    +0.000 C 
ENDROOT
BRANCH   4   7
ATOM      7  N   UNL     1       5.578  -0.451  -4.612  0.00  0.00    +0.000 NA
ATOM      8  C   UNL     1       5.870  -1.810  -5.116  0.00  0.00    +0.000 C 
ATOM      9  C   UNL     1       7.260  -2.336  -4.734  0.00  0.00    +0.000 C 
ATOM     10  O   UNL     1       8.288  -1.453  -5.196  0.00  0.00    +0.000 OA
ATOM     11  C   UNL     1       8.097  -0.137  -4.663  0.00  0.00    +0.000 C 
ATOM     12  C   UNL     1       6.707   0.423  -5.018  0.00  0.00    +0.000 C 
ENDBRANCH   4   7
BRANCH   1  14
ATOM     13  C   UNL     1       1.505   1.487   0.344  0.00  0.00    +0.000 C 
ATOM     14  C   UNL     1       2.355   0.230   0.210  0.00  0.00    +0.000 C 
ENDBRANCH   1  14
TORSDOF 2
