REMARK  Name = 
REMARK  2 active torsions:
REMARK  status: ('A' for Active; 'I' for Inactive)
REMARK    1  A    between atoms: C_1  and  C_2
REMARK    2  A    between atoms: C_5  and  C_7
REMARK                            x       y       z     vdW  Elec       q    Type
REMARK                         _______ _______ _______ _____ _____    ______ ____
ROOT
ATOM      1  C   UNL     1       0.885  -0.035   0.014  0.00  0.00    +0.000 C 
ATOM      2  C   UNL     1       2.403  -0.088  -0.140  0.00  0.00    +0.000 C 
ATOM      3  C   UNL     1       2.949   1.054  -1.023  0.00  0.00    +0.000 C 
ATOM      4  N   UNL     1       2.699   0.800  -2.445  0.00  0.00    +0.000 N 
ATOM      5  C   UNL     1       1.721   1.403  -3.240  0.00  0.00    +0.000 C 
ATOM      6  O   UNL     1       1.336   0.871  -4.279  0.00  0.00    +0.000 OA
ATOM      7  C   UNL     1       3.200  -0.514  -2.863  0.00  0.00    +0.000 C 
ATOM      8  C   UNL     1       2.575  -1.610  -1.994  0.00  0.00    +0.000 C 
ATOM      9  O   UNL     1       2.840  -1.379  -0.600  0.00  0.00    +0.000 OA
ENDROOT
BRANCH   5  10
ATOM     10  C   UNL     1       1.114   2.670  -2.815  0.00  0.00    +0.000 A 
ATOM     11  C   UNL     1      -0.204   2.963  -3.144  0.00  0.00    +0.000 A 
ATOM     12  S   UNL     1      -0.738   4.462  -2.516  0.00  0.00    +0.000 S 
ATOM     13  C   UNL     1       0.791   4.776  -1.869  0.00  0.00    +0.000 A 
ATOM     14 BR   UNL     1       1.187   6.324  -0.892  0.00  0.00    +0.000 Br
ATOM     15  C   UNL     1       1.706   3.789  -2.133  0.00  0.00    +0.000 A 
ENDBRANCH   5  10
TORSDOF 1
