REMARK  Name = 
REMARK  2 active torsions:
REMARK  status: ('A' for Active; 'I' for Inactive)
REMARK    1  A    between atoms: C_6  and  C_7
REMARK    2  A    between atoms: C_7  and  N_8
REMARK                            x       y       z     vdW  Elec       q    Type
REMARK                         _______ _______ _______ _____ _____    ______ ____
ROOT
ATOM      1 CL   UNL     1      -0.810   0.985  -2.450  0.00  0.00    +0.000 Cl
ATOM      2  C   UNL     1      -0.123   0.377  -0.994  0.00  0.00    +0.000 A 
ATOM      3  C   UNL     1      -0.483   0.943   0.227  0.00  0.00    +0.000 A 
ATOM      4  C   UNL     1       0.064   0.443   1.406  0.00  0.00    +0.000 A 
ATOM      5  C   UNL     1       0.967  -0.621   1.359  0.00  0.00    +0.000 A 
ATOM      6  C   UNL     1       1.344  -1.195   0.133  0.00  0.00    +0.000 A 
ATOM      7  C   UNL     1       0.782  -0.685  -1.047  0.00  0.00    +0.000 A 
ENDROOT
BRANCH   6   8
ATOM      8  C   UNL     1       2.286  -2.377   0.098  0.00  0.00    +0.000 C 
BRANCH   8   9
ATOM      9  N   UNL     1       3.720  -2.121  -0.009  0.00  0.00    +0.000 NA
ATOM     10  C   UNL     1       4.327  -1.292   1.039  0.00  0.00    +0.000 C 
ATOM     11  C   UNL     1       4.430   0.204   0.697  0.00  0.00    +0.000 C 
ATOM     12  O   UNL     1       5.070   0.407  -0.568  0.00  0.00    +0.000 OA
ATOM     13  C   UNL     1       4.332  -0.251  -1.604  0.00  0.00    +0.000 C 
ATOM     14  C   UNL     1       4.223  -1.760  -1.339  0.00  0.00    +0.000 C 
ENDBRANCH   8   9
ENDBRANCH   6   8
TORSDOF 2
