REMARK  Name = 
REMARK  2 active torsions:
REMARK  status: ('A' for Active; 'I' for Inactive)
REMARK    1  A    between atoms: C_8  and  C_9
REMARK    2  A    between atoms: C_9  and  N_10
REMARK                            x       y       z     vdW  Elec       q    Type
REMARK                         _______ _______ _______ _____ _____    ______ ____
ROOT
ATOM      1  F   UNL     1       2.569  -1.840  -1.932  0.00  0.00    +0.000 F 
ATOM      2  C   UNL     1       1.958  -1.092  -1.002  0.00  0.00    +0.000 A 
ATOM      3  C   UNL     1       0.610  -0.785  -1.175  0.00  0.00    +0.000 A 
ATOM      4  C   UNL     1      -0.049  -0.038  -0.206  0.00  0.00    +0.000 A 
ATOM      5 BR   UNL     1      -1.887   0.348  -0.404  0.00  0.00    +0.000 Br
ATOM      6  C   UNL     1       0.635   0.414   0.922  0.00  0.00    +0.000 A 
ATOM      7  C   UNL     1       1.990   0.106   1.084  0.00  0.00    +0.000 A 
ATOM      8  C   UNL     1       2.670  -0.658   0.122  0.00  0.00    +0.000 A 
ENDROOT
BRANCH   8   9
ATOM      9  C   UNL     1       4.099  -1.078   0.348  0.00  0.00    +0.000 C 
BRANCH   9  10
ATOM     10  N   UNL     1       5.164  -0.268  -0.229  0.00  0.00    +0.000 NA
ATOM     11  C   UNL     1       5.220   1.147   0.148  0.00  0.00    +0.000 C 
ATOM     12  C   UNL     1       4.603   2.112  -0.877  0.00  0.00    +0.000 C 
ATOM     13  O   UNL     1       5.123   1.884  -2.192  0.00  0.00    +0.000 OA
ATOM     14  C   UNL     1       4.832   0.544  -2.606  0.00  0.00    +0.000 C 
ATOM     15  C   UNL     1       5.455  -0.484  -1.650  0.00  0.00    +0.000 C 
ENDBRANCH   9  10
ENDBRANCH   8   9
TORSDOF 2
